 Gaussian 16, Revision C.01,
 Gaussian 16:  ES64L-G16RevC.01  3-Jul-2019

 ---------------------------------
 #n M062X/6-31G(d,p) Opt=(CalcAll)
 ---------------------------------

 --------------------------------------------------
 C13H16 | Equilibrium Geometry | M062X/6-31G(2df,p)
 --------------------------------------------------
 Symbolic Z-matrix:
 Charge =  0 Multiplicity = 1

 SCF Done:  E(RM062X) =  -504.806378679     A.U. after   13 cycles
 SCF Done:  E(RM062X) =  -504.808984976     A.U. after   13 cycles
 SCF Done:  E(RM062X) =  -504.809096065     A.U. after   11 cycles
 SCF Done:  E(RM062X) =  -504.809096269     A.U. after   10 cycles
 SCF Done:  E(RM062X) =  -504.809101397     A.U. after   11 cycles
 SCF Done:  E(RM062X) =  -504.809107980     A.U. after   11 cycles
 SCF Done:  E(RM062X) =  -504.809102595     A.U. after   12 cycles
 SCF Done:  E(RM062X) =  -504.809109124     A.U. after   11 cycles
 SCF Done:  E(RM062X) =  -504.809109351     A.U. after   10 cycles
 SCF Done:  E(RM062X) =  -504.809109336     A.U. after    7 cycles
 Optimization completed on the basis of negligible forces.
    -- Stationary point found.

                         Standard orientation:
 ---------------------------------------------------------------------
 Center     Atomic      Atomic             Coordinates (Angstroms)
 Number     Number       Type             X           Y           Z
 ---------------------------------------------------------------------
      1          6           0        1.724474   -0.534147    0.027806
      2          6           0        2.392222    0.666850   -0.668676
      3          6           0        0.204707   -0.396606   -0.056323
      4          6           0        2.233077   -1.819384   -0.631433
      5          6           0        2.116998   -0.547141    1.516564
      6          6           0       -0.370936    0.888429    0.023772
      7          6           0        1.789775    1.987195   -0.273062
      8          6           0        0.496697    2.072850    0.050020
      9          6           0       -0.646698   -1.495918   -0.108441
     10          6           0       -1.758650    1.027461    0.056534
     11          6           0       -2.610457   -0.076180   -0.001625
     12          6           0       -2.032475   -1.340960   -0.086542
     13          6           0       -4.106875    0.104171    0.002322
     14          1           0        2.302348    0.549309   -1.759856
     15          1           0        3.465464    0.650438   -0.445505
     16          1           0        1.918089   -2.710904   -0.081919
     17          1           0        1.875179   -1.904601   -1.662058
     18          1           0        3.327807   -1.817194   -0.646542
     19          1           0        1.813410    0.379674    2.010441
     20          1           0        1.632100   -1.383426    2.028508
     21          1           0        3.202047   -0.658364    1.622950
     22          1           0        2.413986    2.876012   -0.294806
     23          1           0        0.041387    3.027986    0.299363
     24          1           0       -0.233640   -2.498123   -0.164815
     25          1           0       -2.183939    2.027528    0.121418
     26          1           0       -2.671267   -2.219113   -0.131289
     27          1           0       -4.467956    0.408320   -0.985563
     28          1           0       -4.616141   -0.824295    0.270542
     29          1           0       -4.410029    0.877033    0.713644
 ---------------------------------------------------------------------

 The electronic state is 1-A.
 Alpha  occ. eigenvalues --  -10.55683 -10.54938 -10.54756 -10.54533 -10.54420
 Alpha  occ. eigenvalues --  -10.54233 -10.54062 -10.54061 -10.53975 -10.53962
 Alpha  occ. eigenvalues --  -10.53829 -10.53219 -10.52760  -0.97100  -0.92467
 Alpha  occ. eigenvalues --   -0.88098  -0.85262  -0.82308  -0.77304  -0.76883
 Alpha  occ. eigenvalues --   -0.76067  -0.68745  -0.66964  -0.64062  -0.57878
 Alpha  occ. eigenvalues --   -0.56330  -0.55029  -0.51653  -0.50717  -0.49327
 Alpha  occ. eigenvalues --   -0.49194  -0.48525  -0.48091  -0.46055  -0.45036
 Alpha  occ. eigenvalues --   -0.43882  -0.43577  -0.42012  -0.41525  -0.41350
 Alpha  occ. eigenvalues --   -0.40072  -0.38929  -0.36306  -0.35522  -0.33885
 Alpha  occ. eigenvalues --   -0.28346  -0.25597
 Alpha virt. eigenvalues --    0.01218   0.04184   0.10527   0.12909   0.15038
 Alpha virt. eigenvalues --    0.15614   0.17438   0.18392   0.19443   0.19850
 Alpha virt. eigenvalues --    0.20500   0.20958   0.21078   0.21738   0.23173

 Mulliken charges:
               1
     1  C   -0.076462
     2  C   -0.227805
     3  C    0.074355
     4  C   -0.343646
     5  C   -0.320545
     6  C    0.042862
     7  C   -0.143681
     8  C   -0.091340
     9  C   -0.154754
    10  C   -0.178693
    11  C    0.076352
    12  C   -0.150932
    13  C   -0.408600
    14  H    0.130703
    15  H    0.113935
    16  H    0.115582
    17  H    0.122923
    18  H    0.113972
    19  H    0.128422
    20  H    0.117627
    21  H    0.108527
    22  H    0.115824
    23  H    0.110903
    24  H    0.107576
    25  H    0.104007
    26  H    0.107133
    27  H    0.144282
    28  H    0.127878
    29  H    0.133596
 Sum of Mulliken charges =  -0.00000

 Dipole moment (field-independent basis, Debye):
    X=              0.0929    Y=              0.0096    Z=             -0.1159  Tot=              0.1488
 Quadrupole moment (field-independent basis, Debye-Ang):
   XX=            -71.9795   YY=            -74.3801   ZZ=            -82.1893
   XY=              0.0991   XZ=             -0.6928   YZ=              0.4377

  Exact polarizability:     182.031       5.564     136.886      -3.955       2.260      79.269
 Approx polarizability:     212.356       8.748     179.826      -7.037       3.862     102.289

                      1                      2                      3
                      A                      A                      A
 Frequencies --     33.0698                90.5712               100.6192
 Red. masses --      1.0272                 3.1217                 3.1636
 Frc consts  --      0.0007                 0.0151                 0.0189
 IR Inten    --      0.2946                 0.4106                 0.3510

                      4                      5                      6
                      A                      A                      A
 Frequencies --    192.5673               214.1303               238.3729
 Red. masses --      2.5652                 2.3983                 2.9132
 Frc consts  --      0.0560                 0.0648                 0.0975
 IR Inten    --      1.5245                 0.2553                 0.0943

                      7                      8                      9
                      A                      A                      A
 Frequencies --    273.7256               297.9657               315.8178
 Red. masses --      1.2663                 1.2520                 2.1488
 Frc consts  --      0.0559                 0.0655                 0.1263
 IR Inten    --      0.1285                 0.0889                 0.0462

                     10                     11                     12
                      A                      A                      A
 Frequencies --    328.9945               348.7977               382.2490
 Red. masses --      1.9488                 2.7171                 2.5989
 Frc consts  --      0.1243                 0.1948                 0.2237
 IR Inten    --      0.1521                 0.0066                 0.6514

                     13                     14                     15
                      A                      A                      A
 Frequencies --    412.7271               446.7311               478.6440
 Red. masses --      2.9570                 3.3813                 3.5874
 Frc consts  --      0.2968                 0.3976                 0.4842
 IR Inten    --      0.8293                 0.3124                 1.5236

                     16                     17                     18
                      A                      A                      A
 Frequencies --    492.0690               524.5651               560.2644
 Red. masses --      3.3830                 3.3489                 4.1034
 Frc consts  --      0.4826                 0.5429                 0.7589
 IR Inten    --      0.3913                 7.6836                 2.7470

                     19                     20                     21
                      A                      A                      A
 Frequencies --    593.9058               671.5428               719.7665
 Red. masses --      2.6882                 3.8020                 1.8976
 Frc consts  --      0.5587                 1.0102                 0.5792
 IR Inten    --      0.9082                 0.8745                12.1141

                     22                     23                     24
                      A                      A                      A
 Frequencies --    722.9315               799.0383               823.0616
 Red. masses --      4.4066                 3.1498                 2.7926
 Frc consts  --      1.3569                 1.1849                 1.1146
 IR Inten    --      2.6943                 5.0468                 8.8797

                     25                     26                     27
                      A                      A                      A
 Frequencies --    845.1079               871.0349               918.6453
 Red. masses --      1.3545                 2.2468                 1.6213
 Frc consts  --      0.5700                 1.0043                 0.8061
 IR Inten    --     17.8313                 2.2932                 3.3491

                     28                     29                     30
                      A                      A                      A
 Frequencies --    922.5128               951.8679               959.4872
 Red. masses --      1.8150                 2.7809                 1.4498
 Frc consts  --      0.9101                 1.4845                 0.7864
 IR Inten    --      4.5207                 3.4881                 0.6929

                     31                     32                     33
                      A                      A                      A
 Frequencies --    974.1497               996.0843              1006.8781
 Red. masses --      1.3386                 2.0146                 1.2972
 Frc consts  --      0.7484                 1.1777                 0.7748
 IR Inten    --      0.3240                 1.9727                 0.4204

                     34                     35                     36
                      A                      A                      A
 Frequencies --   1019.7008              1028.7391              1039.7062
 Red. masses --      1.6129                 1.5845                 1.3872
 Frc consts  --      0.9881                 0.9880                 0.8835
 IR Inten    --      4.2143                 1.5558                 0.2400

                     37                     38                     39
                      A                      A                      A
 Frequencies --   1066.6401              1105.4618              1156.9966
 Red. masses --      1.5395                 2.4963                 1.6673
 Frc consts  --      1.0320                 1.7974                 1.3150
 IR Inten    --      7.2890                 7.0140                 2.6648

                     40                     41                     42
                      A                      A                      A
 Frequencies --   1184.6568              1188.1155              1199.8598
 Red. masses --      1.3796                 1.2243                 1.4677
 Frc consts  --      1.1407                 1.0183                 1.2449
 IR Inten    --      3.8428                 0.7643                 1.6318

                     43                     44                     45
                      A                      A                      A
 Frequencies --   1236.7935              1267.1353              1287.0269
 Red. masses --      2.0740                 2.2665                 2.1393
 Frc consts  --      1.8692                 2.1441                 2.0879
 IR Inten    --      1.2359                 0.9562                 0.7472

                     46                     47                     48
                      A                      A                      A
 Frequencies --   1304.4608              1325.5452              1343.7873
 Red. masses --      1.7287                 2.2767                 3.9446
 Frc consts  --      1.7331                 2.3570                 4.1968
 IR Inten    --      2.5807                 3.4796                 2.3725

                     49                     50                     51
                      A                      A                      A
 Frequencies --   1374.5732              1406.2036              1415.4736
 Red. masses --      1.9292                 1.2883                 1.7921
 Frc consts  --      2.1477                 1.5009                 2.1155
 IR Inten    --      4.7644                 8.9048                 2.4356

                     52                     53                     54
                      A                      A                      A
 Frequencies --   1424.8707              1428.5766              1475.8162
 Red. masses --      1.2963                 1.2896                 1.9870
 Frc consts  --      1.5506                 1.5506                 2.5498
 IR Inten    --      0.1201                 4.5457                 1.4747

                     55                     56                     57
                      A                      A                      A
 Frequencies --   1478.5479              1497.8640              1503.3195
 Red. masses --      1.1904                 1.0458                 1.0541
 Frc consts  --      1.5333                 1.3824                 1.4035
 IR Inten    --      2.4289                 0.7596                 6.9848

                     58                     59                     60
                      A                      A                      A
 Frequencies --   1505.2821              1513.5387              1520.1786
 Red. masses --      1.0674                 1.2150                 1.0845
 Frc consts  --      1.4250                 1.6398                 1.4767
 IR Inten    --      3.2883                13.7562                 2.8144

                     61                     62                     63
                      A                      A                      A
 Frequencies --   1526.6172              1558.0172              1657.5188
 Red. masses --      1.0684                 3.2558                 6.6560
 Frc consts  --      1.4670                 4.6564                10.7740
 IR Inten    --      4.1766                23.4160                 1.3692

                     64                     65                     66
                      A                      A                      A
 Frequencies --   1701.1440              1750.7006              3028.9932
 Red. masses --      6.6932                 7.0912                 1.0673
 Frc consts  --     11.4121                12.8054                 5.7697
 IR Inten    --      5.4017                 0.6790                29.9694

                     67                     68                     69
                      A                      A                      A
 Frequencies --   3063.5320              3069.1361              3073.2096
 Red. masses --      1.0361                 1.0361                 1.0374
 Frc consts  --      5.7295                 5.7503                 5.7728
 IR Inten    --     23.4690                26.0324                28.8431

                     70                     71                     72
                      A                      A                      A
 Frequencies --   3095.2584              3141.1432              3141.9162
 Red. masses --      1.0944                 1.1002                 1.1017
 Frc consts  --      6.1779                 6.3960                 6.4080
 IR Inten    --     25.4787                15.5845                 4.1839

                     73                     74                     75
                      A                      A                      A
 Frequencies --   3145.9207              3153.6643              3162.1410
 Red. masses --      1.1015                 1.1031                 1.1027
 Frc consts  --      6.4231                 6.4640                 6.4961
 IR Inten    --     46.6650                21.2440                14.4081

                     76                     77                     78
                      A                      A                      A
 Frequencies --   3163.4573              3186.7975              3198.0723
 Red. masses --      1.1029                 1.0906                 1.0857
 Frc consts  --      6.5030                 6.5254                 6.5423
 IR Inten    --     13.3329                13.8256                 3.5786

                     79                     80                     81
                      A                      A                      A
 Frequencies --   3203.6130              3220.3416              3229.1430
 Red. masses --      1.0888                 1.0989                 1.0927
 Frc consts  --      6.5839                 6.7147                 6.7134
 IR Inten    --     10.1809                29.0842                13.4621

 - Thermochemistry -
 -------------------
 Temperature   298.150 Kelvin.  Pressure   1.00000 Atm.
 Atom     1 has atomic number  6 and mass  12.00000

 Molecular mass:   172.12520 amu.
 Principal axes and moments of inertia in atomic units:
                           1         2         3
     Eigenvalues --  1192.512472953.178673730.02848
           X            0.99988  -0.01566   0.00075
           Y            0.01565   0.99986   0.00538
           Z           -0.00084  -0.00537   0.99999
 This molecule is an asymmetric top.
 Rotational symmetry number  1.
 Warning -- assumption of classical behavior for rotation
           may cause significant error
 Rotational temperatures (Kelvin)      0.07263     0.02933     0.02322
 Rotational constants (GHZ):           1.51339     0.61112     0.48384
 Zero-point vibrational energy     671566.2 (Joules/Mol)
                                  160.50818 (Kcal/Mol)
 Warning -- explicit consideration of  19 degrees of freedom as
           vibrations may cause significant error
 Vibrational temperatures:     47.58   130.31   144.77   277.06   308.09
          (Kelvin)            342.97   393.83   428.71   454.39   473.35
                              501.84   549.97   593.82   642.75   688.66
                              707.98   754.73   806.10   854.50   966.20
                             1035.58  1040.14  1149.64  1184.20  1215.92
                             1253.22  1321.73  1327.29  1369.53  1380.49
                             1401.58  1433.14  1448.67  1467.12  1480.13
                             1495.91  1534.66  1590.51  1664.66  1704.46
                             1709.43  1726.33  1779.47  1823.13  1851.74
                             1876.83  1907.16  1933.41  1977.70  2023.21
                             2036.55  2050.07  2055.40  2123.37  2127.30
                             2155.09  2162.94  2165.77  2177.64  2187.20
                             2196.46  2241.64  2384.80  2447.57  2518.87
                             4358.05  4407.74  4415.80  4421.66  4453.39
                             4519.40  4520.52  4526.28  4537.42  4549.62
                             4551.51  4585.09  4601.31  4609.28  4633.35
                             4646.02

 Zero-point correction=                           0.255786 (Hartree/Particle)
 Thermal correction to Energy=                    0.267820
 Thermal correction to Enthalpy=                  0.268764
 Thermal correction to Gibbs Free Energy=         0.217984
 Sum of electronic and zero-point Energies=           -504.553323
 Sum of electronic and thermal Energies=              -504.541290
 Sum of electronic and thermal Enthalpies=            -504.540345
 Sum of electronic and thermal Free Energies=         -504.591126

                     E (Thermal)             CV                S
                      KCal/Mol        Cal/Mol-Kelvin    Cal/Mol-Kelvin
 Total                  168.059             48.270            106.876
 Electronic               0.000              0.000              0.000
 Translational            0.889              2.981             41.337
 Rotational               0.889              2.981             30.952
 Vibrational            166.282             42.309             34.587
 Vibration     1          0.594              1.983              5.636
 Vibration     2          0.602              1.956              3.648
 Vibration     3          0.604              1.949              3.442
 Vibration     4          0.635              1.850              2.203
 Vibration     5          0.644              1.819              2.008
 Vibration     6          0.656              1.782              1.815
 Vibration     7          0.676              1.722              1.573
 Vibration     8          0.691              1.678              1.428
 Vibration     9          0.703              1.643              1.332
 Vibration    10          0.712              1.618              1.265
 Vibration    11          0.726              1.578              1.172
 Vibration    12          0.752              1.508              1.030
 Vibration    13          0.777              1.443              0.917
 Vibration    14          0.806              1.368              0.806
 Vibration    15          0.835              1.297              0.714
 Vibration    16          0.848              1.268              0.678
 Vibration    17          0.880              1.196              0.599
 Vibration    18          0.916              1.117              0.523
 Vibration    19          0.952              1.045              0.460

 Normal termination of Gaussian 16 at Tue Mar 15 14:57:34 2022.
